LAMMPS data file - example placeholder
10 atoms
0 bonds
0 angles
0 dihedrals
0 impropers

2 atom types

0.0 10.0 xlo xhi
0.0 10.0 ylo yhi
0.0 10.0 zlo zhi

Masses

1 207.2
2 118.7

Atoms

1 1 0.0 1.0 1.0 1.0
2 1 0.0 2.0 2.0 2.0
3 2 0.0 3.0 3.0 3.0
4 2 0.0 4.0 4.0 4.0
5 1 0.0 5.0 5.0 5.0
6 2 0.0 6.0 6.0 6.0
7 1 0.0 7.0 7.0 7.0
8 2 0.0 8.0 8.0 8.0
9 1 0.0 9.0 9.0 9.0
10 2 0.0 5.5 5.5 5.5
